
233 atoms
3 atom types
   0.0000000000   30.8879982389 xlo xhi
   0.0000000000   14.0599993957 ylo yhi
   0.0000000000   12.1763166539 zlo zhi
   0.0000000000    0.0000000000   -7.0299996979 xy xz yz

Atoms # atomic

     1      1    0.0000000000    0.0000000000    0.0000000000
     2      1    2.2959000000    1.4059300000    0.8118000000
     3      1    4.4569400000    0.0540079000    1.6154500000
     4      1    6.8307500000   13.9709000000    0.1027150000
     5      1    0.0000000000    2.8120000000    0.0000000000
     6      1    2.2959000000    4.2179300000    0.8118000000
     7      1    4.5334200000    2.8268400000    1.6728400000
     8      1    6.8305600000   -4.3026700000   12.1213000000
     9      1    0.0000000000    5.6240000000    0.0000000000
    10      1    2.2959000000    7.0299300000    0.8118000000
    11      1    4.5472100000    5.6677500000    1.6495300000
    12      1    6.8823500000    5.7387000000    0.0063097800
    13      1    0.0000000000    8.4360000000    0.0000000000
    14      1    2.2959000000    9.8419300000    0.8118000000
    15      1    4.5440000000    8.5109800000    1.6358700000
    16      1    6.7831500000    1.5129500000   12.1212000000
    17      1    0.0000000000   11.2480000000    0.0000000000
    18      1    2.2959000000   12.6539000000    0.8118000000
    19      1    4.5248000000   11.2929000000    1.6877400000
    20      1    6.8259300000    4.2286000000   12.0270000000
    21      1    0.0000000000   12.6540000000    2.4352600000
    22      1    2.2999200000   -0.0000703000    3.2470600000
    23      1    4.6361200000   -1.3066800000    4.1243700000
    24      1    6.8222500000   -1.3264900000    2.4667600000
    25      1    0.0000000000    1.4060000000    2.4352600000
    26      1    2.2959000000    2.8119300000    3.2470600000
    27      1    4.6100300000    1.4920200000    4.0683500000
    28      1    6.8270200000    1.4372900000    2.4015400000
    29      1    0.0000000000    4.2180000000    2.4352600000
    30      1    2.2959000000    5.6239300000    3.2470600000
    31      1    4.5093700000    4.2231200000    4.0995500000
    32      1    6.8416900000    4.2028500000    2.5368000000
    33      1    0.0000000000    7.0300000000    2.4352600000
    34      1    2.2959000000    8.4359300000    3.2470600000
    35      1    4.5188500000    7.0059600000    3.9844700000
    36      1    6.7581500000    7.0506300000    2.3941400000
    37      1    0.0000000000    9.8420000000    2.4352600000
    38      1    2.2959000000   11.2479000000    3.2470600000
    39      1    4.5340100000    9.8023200000    4.1078800000
    40      1    6.8722800000   10.0128000000    2.4833300000
    41      1    0.0000000000   -2.8120000000    4.8705300000
    42      1    2.2959000000   -1.4060700000    5.6823200000
    43      1    4.5388200000   -2.7875100000    6.5554400000
    44      1    6.8367700000   -2.8304400000    4.9475000000
    45      1    0.0000000000    0.0000000000    4.8705300000
    46      1    2.2959000000    1.4059300000    5.6823200000
    47      1    4.5194400000   -0.0743482000    6.5017300000
    48      1    6.8910400000    0.0512696000    4.9321200000
    49      1    0.0000000000    2.8120000000    4.8705300000
    50      1    2.2959000000    4.2179300000    5.6823200000
    51      1    4.5906900000    2.7251500000    6.4981300000
    52      1    7.1033900000    2.7092100000    4.8734900000
    53      1    0.0000000000    5.6240000000    4.8705300000
    54      1    2.2959000000    7.0299300000    5.6823200000
    55      1    4.6285800000    5.7672900000    6.4953300000
    56      1    6.9291500000    5.4368700000    4.8622500000
    57      1    0.0000000000    8.4360000000    4.8705300000
    58      1    2.2959000000    9.8419300000    5.6823200000
    59      1    4.5886200000    8.4620900000    6.5114200000
    60      1    6.7749100000    8.3961300000    4.8441800000
    61      1    0.0000000000    9.8419993957    7.3057900000
    62      1    2.2959000000   -2.8120700000    8.1175900000
    63      1    4.4805000000   -4.2029300000    8.9880400000
    64      1    6.8268100000   -4.1708000000    7.2899400000
    65      1    0.0000000000   -1.4060000000    7.3057900000
    66      1    2.2999200000   -0.0000703000    8.1175900000
    67      1    4.5194100000   -1.4230700000    9.0193500000
    68      1    6.8155600000   -1.3962300000    7.3786500000
    69      1    0.0000000000    1.4060000000    7.3057900000
    70      1    2.2959000000    2.8119300000    8.1175900000
    71      1    4.5229300000    1.3345500000    8.9039100000
    72      1    6.8900000000    1.3466200000    7.3822800000
    73      1    0.0000000000    4.2180000000    7.3057900000
    74      1    2.2959000000    5.6239300000    8.1175900000
    75      1    4.4675400000    4.1323800000    8.7929900000
    76      1    6.9346900000    4.0671800000    7.2923700000
    77      1    0.0000000000    7.0300000000    7.3057900000
    78      1    2.2959000000    8.4359300000    8.1175900000
    79      1    4.6142900000    6.9358300000    8.9259400000
    80      1    6.9477300000    6.8570900000    7.2787500000
    81      1    0.0000000000    8.4360000000    9.7410500000
    82      1    2.2959000000   -4.2180700000   10.5528000000
    83      1    4.6808100000   -5.6408000000   11.4378000000
    84      1    6.8367800000    8.3918700000    9.7280500000
    85      1    0.0000000000   -2.8120000000    9.7410500000
    86      1    2.2959000000   -1.4060700000   10.5528000000
    87      1    4.5519000000   -2.8062800000   11.4512000000
    88      1    6.8072600000   -2.8822200000    9.7200300000
    89      1    0.0000000000   -0.0000000000    9.7410500000
    90      1    2.2959000000    1.4059300000   10.5528000000
    91      1    4.4929600000    0.0676212000   11.4139000000
    92      1    6.7892400000   -0.0482287000    9.7806200000
    93      1    0.0000000000    2.8120000000    9.7410500000
    94      1    2.2959000000    4.2179300000   10.5528000000
    95      1    4.4729400000    2.8867400000   11.3288000000
    96      1    6.9614800000    2.7444900000    9.6816700000
    97      1    0.0000000000    5.6240000000    9.7410500000
    98      1    2.2959000000    7.0299300000   10.5528000000
    99      1    4.5962800000    5.6336400000   11.3233000000
   100      1    6.9790400000    5.5855300000    9.7684000000
   101      2    8.4311400000   -0.0944166000    0.3207970000
   102      2    8.4188700000   -2.7426600000    9.9145000000
   103      2    8.4017600000    8.6701900000    0.1232770000
   104      2    8.4151600000    9.7148100000    2.6896200000
   105      2    8.3452000000   10.8866000000    0.0983468000
   106      2    8.4205100000    7.1696200000    2.2887000000
   107      2    8.4881800000    1.2833200000    2.1280800000
   108      2    8.4882500000    4.0254900000    2.7108000000
   109      2    8.3838800000   -0.7955010000   12.0372000000
   110      2    8.3900800000   -1.1790200000    2.5242800000
   111      2    8.4270400000   -0.1962690000    4.9971100000
   112      2    8.6397000000    2.4452900000    4.9357100000
   113      2    8.2872700000    5.7030700000    4.2164200000
   114      2    8.2462900000   -2.9799200000    5.5085200000
   115      2    7.8197100000    8.4520200000    7.2488800000
   116      2    7.6281300000    4.2200700000    0.6736860000
   117      2    8.4031800000    1.2758300000    7.8079500000
   118      2    8.5552300000    3.8670000000    7.2684400000
   119      2    7.9790500000    6.6342200000    8.5347800000
   120      2    8.3881100000   -5.4948200000    9.6401000000
   121      2    8.3170800000   -1.5154400000    7.1265800000
   122      2    8.4810200000   -0.1618890000    9.8952600000
   123      2    8.4956300000    2.8504500000    9.6669500000
   124      2    8.4452900000    5.1747000000    9.8726200000
   125      2    9.7394900000    4.8697000000   11.8929000000
   126      2   11.1300000000    4.2695500000   11.6304000000
   127      2   13.8666000000   -0.7857800000    1.9436000000
   128      2   12.1752000000    9.7905400000    0.7238440000
   129      2   11.7120000000    2.1019000000   11.5155000000
   130      2   13.4278000000   -0.8443530000    3.3995200000
   131      2   11.8951000000   13.4511000000    0.2915990000
   132      2   12.4396000000    0.7426550000    0.7288160000
   133      2   13.0899000000    6.0683200000    5.4185800000
   134      2    9.2431100000   11.6210000000    3.2758000000
   135      2   10.3044000000   11.1070000000    4.2339900000
   136      2   10.3616000000    9.1174600000    5.2330200000
   137      2   10.7324000000   10.2836000000    6.3994100000
   138      2   11.7577000000   -0.6878190000    8.9374300000
   139      2    9.6546800000    1.2020000000    6.1937600000
   140      2   11.8302000000   10.7922000000    2.7062200000
   141      2   13.3622000000   11.1500000000    2.4241700000
   142      2   10.7065000000    6.3609000000    1.1675700000
   143      2   10.4771000000    5.1024500000    0.2725910000
   144      2    9.7482400000    1.3506000000   10.6912000000
   145      2   10.5866000000    0.3211520000   11.2502000000
   146      2   11.2565000000    0.6457840000    4.6807300000
   147      2   11.8285000000    1.5809000000    2.2861700000
   148      2   13.6725000000    3.0374100000    2.0437200000
   149      2   11.2516000000    2.4138500000    1.0575700000
   150      2   10.4097000000   -4.0778300000   11.3619000000
   151      2    9.1513800000    3.1003400000    0.0344075000
   152      2   10.7076000000   -4.3429300000    9.1085800000
   153      2   12.0375000000   -4.5200100000    9.7962100000
   154      2    9.2466300000   -3.4746100000    7.9405500000
   155      2   10.4525000000   -2.4031300000    7.9706800000
   156      2   10.7215000000    0.4073050000    7.1381700000
   157      2   10.9473000000   -0.4313370000    3.6494200000
   158      2   11.8889000000    7.0875600000    2.8889300000
   159      2   10.4726000000    7.1654700000    3.4256900000
   160      2   10.5522000000    6.2178700000   10.4057000000
   161      2   10.7210000000    7.7227500000    9.8753600000
   162      2   11.3792000000    4.2614200000    7.0620500000
   163      2   10.3284000000    6.3730300000    8.0368600000
   164      2   12.0145000000    4.2604000000    4.7927100000
   165      2   11.2802000000    2.7182300000    6.8372200000
   166      2   13.4333000000    9.3660300000    6.9041700000
   167      2   13.7822000000    8.6627200000    9.1769300000
   168      2   12.5256000000    7.0183000000    9.8352400000
   169      2   13.4820000000    7.0064700000   10.9444000000
   170      2   13.3691000000    8.2807500000    5.8651200000
   171      2   12.2009000000    6.4954500000    6.5910200000
   172      2   10.0159000000    7.1403400000    5.6908300000
   173      2   12.7555000000    8.8609700000    3.0928600000
   174      2   14.4123000000    0.8286850000    6.3876700000
   175      2   11.9473000000    9.5664800000    5.5998100000
   176      2    8.7209000000    7.9596200000    4.9817900000
   177      2    9.2794900000    5.8421400000    7.0157900000
   178      2   13.6948000000    4.8597400000    1.0325100000
   179      2   13.5009000000    4.2529800000    3.0247700000
   180      2   14.7409000000   -2.2843200000   10.7976000000
   181      2   14.1268000000   -3.7864100000    9.0659000000
   182      2   12.6927000000    5.7731200000    0.1729880000
   183      2   14.5854000000    6.8781400000    0.7995100000
   184      2   13.7734000000    7.7678000000    2.5135600000
   185      2   15.0367000000    8.2548500000    0.3937680000
   186      2   10.3184000000   -0.2508230000    9.0278900000
   187      2   14.3123000000   -1.5012000000    9.4103500000
   188      2   14.9975000000    4.2730800000    8.0394300000
   189      2   13.6870000000    3.3276600000    7.6796200000
   190      2   14.6059000000    2.5120500000    9.7891400000
   191      2   13.6358000000    2.5839200000   11.0745000000
   192      2   11.6738000000    5.4510000000    3.6919900000
   193      2   14.9655000000    1.8053600000    7.4373800000
   194      2   13.8775000000    0.2645030000    8.2491200000
   195      2   13.5534000000    0.6529720000    9.7008300000
   196      2   14.6297000000    6.1125200000    7.3141800000
   197      2   14.7348000000    6.2713100000    8.7825700000
   198      3   10.6540000000    5.1230900000   11.7080000000
   199      3   12.1777000000    2.9111800000   11.9391000000
   200      3   14.0304000000   -1.3173300000    2.7707500000
   201      3   12.7813000000   -0.1072740000    0.3735400000
   202      3   10.1700000000   11.8026000000    3.5251000000
   203      3   10.9322000000    9.9886200000    5.4740200000
   204      3   10.6119000000    1.0945300000    6.3736900000
   205      3   12.7076000000   10.3798000000    2.4188000000
   206      3   10.8146000000    6.0615900000    0.2244700000
   207      3   10.6609000000    1.0549100000   10.6265000000
   208      3   15.0632000000    0.8910310000    7.1509500000
   209      3   12.0991000000    2.1502600000    1.5023300000
   210      3   10.1425000000    3.1926900000    0.1001760000
   211      3   11.0713000000   -4.6846500000    9.9537800000
   212      3   10.2291000000   -3.3431600000    7.7519700000
   213      3   11.5995000000    0.2984120000    3.7866900000
   214      3   10.9972000000    6.5728600000    2.8668000000
   215      3   10.9326000000    6.7662600000    9.6638300000
   216      3   10.2836000000    6.0710700000    7.0561200000
   217      3   11.8986000000    3.5133700000    6.6386500000
   218      3   13.5824000000   -4.5266000000    8.6947800000
   219      3   13.5102000000    7.1053300000    9.9859500000
   220      3   13.1746000000    6.5194100000    6.3340400000
   221      3   13.0492000000    7.9331700000    3.1550300000
   222      3   13.2841000000    9.2559900000    5.9461500000
   223      3    9.7618000000    7.8293700000    4.9596100000
   224      3   14.1608000000    3.8590600000    2.3913500000
   225      3   14.9367000000   -2.2657600000    9.8511900000
   226      3   13.6120000000    5.5620600000    0.1862260000
   227      3   15.0357000000    7.6602300000    1.1409600000
   228      3   10.8785000000   -0.7349200000    8.3985800000
   229      3   14.5499000000    3.3454300000    8.1484700000
   230      3   14.3784000000    2.0365400000   10.6211000000
   231      3   12.4402000000    4.9887500000    4.1959500000
   232      3   13.3528000000   -0.0620759000    9.0232500000
   233      3   15.2703000000    5.9144100000    7.9983000000

Electron Number

   0.795740

dE/dN

   0.0
