
233 atoms
3 atom types
   0.0000000000   30.8879982389 xlo xhi
   0.0000000000   14.0599993957 ylo yhi
   0.0000000000   12.1763166539 zlo zhi
   0.0000000000    0.0000000000   -7.0299996979 xy xz yz

Atoms # atomic

     1      1    0.0000000000    0.0000000000    0.0000000000
     2      1    2.2959000000    1.4059300000    0.8118000000
     3      1    4.5292500000   -0.1052370000    1.6039200000
     4      1    6.8054000000    6.9258900000   12.1753000000
     5      1    0.0000000000    2.8120000000    0.0000000000
     6      1    2.2959000000    4.2179300000    0.8118000000
     7      1    4.5253000000    2.8686800000    1.6461200000
     8      1    6.8964900000    2.7484400000    0.0984504000
     9      1    0.0000000000    5.6240000000    0.0000000000
    10      1    2.2959000000    7.0299300000    0.8118000000
    11      1    4.5314000000    5.5439800000    1.6237600000
    12      1    6.9190000000    5.5414700000    0.1689780000
    13      1    0.0000000000    8.4360000000    0.0000000000
    14      1    2.2959000000    9.8419300000    0.8118000000
    15      1    4.5171900000    8.3835800000    1.7056700000
    16      1    6.8793500000    8.4268800000    0.0257448000
    17      1    0.0000000000   11.2480000000    0.0000000000
    18      1    2.2959000000   12.6539000000    0.8118000000
    19      1    4.5158800000   11.1804000000    1.6076200000
    20      1    6.9494000000   11.1305000000    0.0594174000
    21      1    0.0000000000   12.6540000000    2.4352600000
    22      1    2.2999200000   -0.0000703000    3.2470600000
    23      1    4.5189600000   -1.4101100000    4.0189800000
    24      1    6.9308300000   12.5776000000    2.3732300000
    25      1    0.0000000000    1.4060000000    2.4352600000
    26      1    2.2959000000    2.8119300000    3.2470600000
    27      1    4.4944900000    1.3244900000    3.8926300000
    28      1    6.9632700000    1.2466900000    2.4792700000
    29      1    0.0000000000    4.2180000000    2.4352600000
    30      1    2.2959000000    5.6239300000    3.2470600000
    31      1    4.5268400000    4.1097500000    4.1915700000
    32      1    6.9967200000    3.9884600000    2.5049800000
    33      1    0.0000000000    7.0300000000    2.4352600000
    34      1    2.2959000000    8.4359300000    3.2470600000
    35      1    4.5340400000    6.9965500000    4.0869600000
    36      1    6.8318500000    6.9372100000    2.5138600000
    37      1    0.0000000000    9.8420000000    2.4352600000
    38      1    2.2959000000   11.2479000000    3.2470600000
    39      1    4.5151200000    9.8887400000    4.0114100000
    40      1    6.7584300000    9.6107500000    2.4633000000
    41      1    0.0000000000   -2.8120000000    4.8705300000
    42      1    2.2959000000   -1.4060700000    5.6823200000
    43      1    4.5967300000   -2.7378200000    6.5134500000
    44      1    6.8141200000   -2.7368300000    4.8521400000
    45      1    0.0000000000    0.0000000000    4.8705300000
    46      1    2.2959000000    1.4059300000    5.6823200000
    47      1    4.4996700000   -0.0668160000    6.4230100000
    48      1    6.8430900000   -0.0681852000    4.8392200000
    49      1    0.0000000000    2.8120000000    4.8705300000
    50      1    2.2959000000    4.2179300000    5.6823200000
    51      1    4.4596000000    2.7422100000    6.4230300000
    52      1    6.7924100000    2.6152700000    4.8444600000
    53      1    0.0000000000    5.6240000000    4.8705300000
    54      1    2.2959000000    7.0299300000    5.6823200000
    55      1    4.4833600000    5.6429900000    6.3825300000
    56      1    6.8297100000    5.5990600000    4.8340400000
    57      1    0.0000000000    8.4360000000    4.8705300000
    58      1    2.2959000000    9.8419300000    5.6823200000
    59      1    4.4819000000    8.4342800000    6.3733800000
    60      1    6.9458200000    8.5234500000    4.8604900000
    61      1    0.0000000000   -4.2179993957    7.3057900000
    62      1    2.2959000000   -2.8120700000    8.1175900000
    63      1    4.4711300000   -4.2380600000    9.0301700000
    64      1    6.6537300000    9.7857600000    7.3623000000
    65      1    0.0000000000   -1.4060000000    7.3057900000
    66      1    2.2999200000   -0.0000703000    8.1175900000
    67      1    4.6084700000   -1.4956600000    8.9903300000
    68      1    6.9014000000   -1.4022800000    7.2680000000
    69      1    0.0000000000    1.4060000000    7.3057900000
    70      1    2.2959000000    2.8119300000    8.1175900000
    71      1    4.5210400000    1.2747000000    8.8497300000
    72      1    6.7796000000    1.3115300000    7.2493900000
    73      1    0.0000000000    4.2180000000    7.3057900000
    74      1    2.2959000000    5.6239300000    8.1175900000
    75      1    4.5783900000    4.2915100000    8.8451500000
    76      1    6.7543500000    4.3741000000    7.2579800000
    77      1    0.0000000000    7.0300000000    7.3057900000
    78      1    2.2959000000    8.4359300000    8.1175900000
    79      1    4.5787800000    7.1051500000    8.9161200000
    80      1    6.8038800000    7.1299700000    7.2510700000
    81      1    0.0000000000    8.4360000000    9.7410500000
    82      1    2.2959000000   -4.2180700000   10.5528000000
    83      1    4.5891200000   -5.6260200000   11.5047000000
    84      1    6.8342000000   -5.5559700000    9.8098100000
    85      1    0.0000000000   -2.8120000000    9.7410500000
    86      1    2.2959000000   -1.4060700000   10.5528000000
    87      1    4.5990000000   -2.9421200000   11.4617000000
    88      1    6.9376400000   -2.8052400000    9.8127500000
    89      1    0.0000000000   -0.0000000000    9.7410500000
    90      1    2.2959000000    1.4059300000   10.5528000000
    91      1    4.6090500000   -0.1252550000   11.3656000000
    92      1    6.9933900000   -0.1244750000    9.8345800000
    93      1    0.0000000000    2.8120000000    9.7410500000
    94      1    2.2959000000    4.2179300000   10.5528000000
    95      1    4.5826300000    2.7097200000   11.3358000000
    96      1    6.7537800000    2.7293900000    9.6330500000
    97      1    0.0000000000    5.6240000000    9.7410500000
    98      1    2.2959000000    7.0299300000   10.5528000000
    99      1    4.5167300000    5.5662300000   11.3293000000
   100      1    6.8827100000    5.5309600000    9.8717100000
   101      2    8.5135500000   10.9960000000    0.4298860000
   102      2    8.3879700000    7.0979600000    7.3982700000
   103      2    8.4986600000   -1.2295700000    7.1778900000
   104      2    8.3983100000    5.2896500000    0.7104800000
   105      2    8.1783200000    3.8868400000    7.4573200000
   106      2    8.4011000000    6.9299600000   11.9634000000
   107      2    7.9188400000    1.6414100000    9.5204600000
   108      2    8.5517400000    1.0504400000    2.5829700000
   109      2    8.2944500000    5.8273500000    4.7489700000
   110      2    8.3639500000    7.2030200000    2.1904200000
   111      2    8.3928500000   -5.5956400000   10.1925000000
   112      2    8.4948700000   -4.2173000000   12.0620000000
   113      2    8.4005100000    0.1125580000    4.7877800000
   114      2    8.5113000000   12.4626000000    2.7505500000
   115      2    8.3649500000   11.4029000000    4.5753100000
   116      2    8.2838200000    9.7770093957    7.3972700000
   117      2    8.3432800000    1.2358200000    7.2971100000
   118      2    7.4728100000    4.0213200000    5.6831600000
   119      2    8.4159000000    4.1175700000    2.7702500000
   120      2    8.4883200000   -2.8809200000    9.5962400000
   121      2    8.4890200000    8.4940800000    5.0815000000
   122      2    8.6764600000   -0.1722160000    9.8752800000
   123      2    8.4222700000    5.3428100000    9.8467800000
   124      2    8.4491700000    1.3992200000   11.8830000000
   125      2    8.6271900000    3.2239700000    5.0457900000
   126      2   10.0101000000    4.3875900000    5.3330500000
   127      2   10.4645000000    5.9124500000    6.8021000000
   128      2   10.9660000000    1.9816500000    8.2405700000
   129      2   10.2142000000    1.6459100000    6.9287800000
   130      2   10.7166000000    6.3310400000    5.1958200000
   131      2   11.5607000000   -4.2210800000    9.8538900000
   132      2   12.5430000000    9.1676200000    7.4896100000
   133      2   11.1682000000   -5.2245300000   11.0957000000
   134      2   10.7870000000   -0.0819144000    3.9266800000
   135      2   10.7403000000   -1.5991900000    3.7184800000
   136      2   11.0919000000    0.3246400000   11.3341000000
   137      2   11.3592000000    8.3586100000    0.3723460000
   138      2   11.0197000000   -0.4952050000    7.2585600000
   139      2   10.8127000000   -1.1153700000    6.0089700000
   140      2    9.4303500000   -1.2853100000   11.0629000000
   141      2   10.9214000000   -1.5849000000   10.4335000000
   142      2   12.7011000000   -2.1028800000    9.2126600000
   143      2   11.3420000000   -2.5182300000    8.5000800000
   144      2   10.9701000000    2.1949000000   10.4978000000
   145      2    9.6271100000    2.8607600000   10.3004000000
   146      2   10.9852000000    7.7012500000    9.0114100000
   147      2    9.5705900000    7.0568300000    8.7437600000
   148      2   11.1351000000    0.6058930000    0.7507870000
   149      2    9.7044400000    1.2051800000    0.7597910000
   150      2   10.1380000000    9.2225200000    5.8514600000
   151      2   10.0785000000   -3.4187600000    6.3975800000
   152      2   10.7474000000    8.0697800000    2.5304500000
   153      2    9.5569500000    8.6674300000    1.7215900000
   154      2   10.7499000000   10.3754000000    2.2239900000
   155      2    9.4980900000   11.3027000000    2.3485400000
   156      2   11.0191000000    2.3224600000    2.0000500000
   157      2   10.0206000000    3.3432700000    3.9696300000
   158      2   11.5522000000    4.2854400000    1.9499600000
   159      2   11.0664000000    5.1113700000    0.6388370000
   160      2   12.2783000000    7.3252300000    3.8836200000
   161      2   11.4311000000    6.2911100000    2.9230500000
   162      2   14.0839000000    2.5437400000    3.3035000000
   163      2   13.2338000000    4.6622000000    0.8647890000
   164      2   13.1562000000   -0.1708710000    1.2863100000
   165      2   15.0346000000    3.9552500000    1.8568200000
   166      2   13.7609000000    5.2303900000    7.2657200000
   167      2   13.1155000000    5.9799200000    9.2749700000
   168      2   11.3188000000    4.3109700000   10.0038000000
   169      2   13.8033000000    7.1404600000    8.3378700000
   170      2   11.1743000000    5.8532500000    9.7594400000
   171      2   14.3055000000    0.4214210000    6.3211800000
   172      2   13.5895000000   -0.8662760000    5.9416100000
   173      2   13.5541000000    0.5202070000   11.3325000000
   174      2   11.8862000000    5.7540300000   11.9476000000
   175      2   11.3284000000   12.4495000000    1.2464700000
   176      2   14.3639000000   -0.7238380000   11.5828000000
   177      2   13.9785000000   -3.4177000000   12.1281000000
   178      2   15.1429000000   -3.1117700000    8.9473000000
   179      2   13.1939000000   -5.2719800000   10.7912000000
   180      2   13.4289000000    9.0960200000    4.3197200000
   181      2   13.6483000000    8.2886800000    5.4928700000
   182      2   13.9850000000    9.1646600000    7.8959500000
   183      2   14.9383000000   -4.5165300000    9.6462100000
   184      2   14.3276000000   -0.7042940000    9.6807500000
   185      2   14.2729000000   -1.0952300000    8.1191800000
   186      2   12.7873000000   11.3046000000    3.7401100000
   187      2   12.3902000000   10.7545000000    5.2220400000
   188      2   13.3611000000    1.8612300000    4.4915400000
   189      2   11.9326000000    2.4453000000    3.1630500000
   190      2   13.3264000000    3.2031100000    6.3026000000
   191      2   12.4441000000    1.9834800000    6.5032700000
   192      2   13.8049000000    0.9645550000    2.1481100000
   193      2   14.1057000000   -5.8007200000   11.9435000000
   194      2   15.3736000000    4.3800300000    3.4239000000
   195      2   15.0538000000    6.3453700000    4.3252500000
   196      2   12.5454000000    5.0793400000    6.3890300000
   197      2   14.6081000000    5.1599900000    5.1897300000
   198      3    9.6811500000    3.4930200000    4.9883800000
   199      3   11.0273000000    1.4408100000    7.3659100000
   200      3   10.7698000000    5.6179900000    5.8994900000
   201      3   11.5669000000   -5.1988400000   10.1358000000
   202      3   11.1607000000   -0.9304640000    4.3769800000
   203      3   11.6866000000    1.1306500000   11.6030000000
   204      3   10.8219000000   -1.3721100000    6.9790600000
   205      3   10.4626000000   -1.1635600000   11.1856000000
   206      3   11.8344000000   -2.5878300000    9.3522100000
   207      3   10.4715000000    2.7452200000    9.8380400000
   208      3   10.5195000000    6.8393100000    8.7088400000
   209      3   10.6407000000    1.4260800000    0.5785810000
   210      3   10.7118000000    9.9142800000    6.2544600000
   211      3   10.5369000000    8.7186100000    1.7747700000
   212      3   10.5245000000   11.3283000000    2.4692100000
   213      3   11.1288000000    2.8975400000    2.8148600000
   214      3   11.6861000000    5.1383600000    1.4237200000
   215      3   11.3730000000    6.9721300000    3.6270600000
   216      3   14.1122000000    4.4617700000    0.5338290000
   217      3   15.3033000000    3.6040400000    2.7353000000
   218      3   13.8890000000    6.2365500000    8.7022400000
   219      3   13.3601000000    8.7954100000    7.2323700000
   220      3   11.7408000000    5.1797700000   10.2050000000
   221      3   14.3725000000   -0.5801900000    6.3970000000
   222      3   11.7462000000   13.1200000000    0.6729160000
   223      3   14.4433000000    0.1580240000   11.1268000000
   224      3   14.0999000000   -5.1438600000   11.1776000000
   225      3   13.6143000000    8.1676700000    4.5003900000
   226      3   15.1869000000   -4.0589500000    8.8475400000
   227      3   14.1206000000   -1.5047100000    9.0096000000
   228      3   13.0662000000   10.7576000000    4.4806600000
   229      3   13.3520000000    1.9426500000    3.5007000000
   230      3   13.3254000000    2.2208500000    6.1357300000
   231      3   13.9010000000    0.4554180000    1.3229200000
   232      3   15.3920000000    5.4802500000    4.6691200000
   233      3   13.4555000000    4.7313100000    6.4475400000

Electron Number

   0.857753

dE/dN

   0.0
